Job jag_amide1_spe_B3LYP_6-31Gss started on Haoyus-MacBook-Pro-3.local at Fri Oct 11 11:24:29 2019
jobid: Haoyus-MacBook-Pro-3-0-5da09eab

  +--------------------------------------------------------------------+
  |  Jaguar version 10.0, release  11                                   |
  |                                                                    |
  |  Copyright Schrodinger, Inc.                                       |
  |  All Rights Reserved.                                              |
  |                                                                    |
  |  The following have contributed to Jaguar (listed alphabetically): |
  |  Mike Beachy, Art Bochevarov, Dale Braden, Yixiang Cao,            |
  |  Chris Cortis, Rich Friesner, Bill Goddard, Hod Greeley,           |
  |  Tom Hughes, Leif Jacobson, Jean-Marc Langlois,                    |
  |  Daniel Mainz, Rob Murphy, Dean Philipp, Tom Pollard,              |
  |  Murco Ringnalda, Mark Watson, Haoyu Yu.                           |
  |                                                                    |
  |  Use of this program should be acknowledged in publications as:    |
  |                                                                    |
  |  Jaguar, version 10.0, Schrodinger, Inc., New York, NY, 2018.       |
  |                                                                    |
  |  A. D. Bochevarov, E. Harder, T. F. Hughes, J. R. Greenwood,       |
  |  D. A. Braden, D. M. Philipp, D. Rinaldo, M. D. Halls,             |
  |  J. Zhang, R. A. Friesner, "Jaguar: A High-Performance Quantum     |
  |  Chemistry Software Program with Strengths in Life and Materials   |
  |  Sciences", Int. J. Quantum Chem., 2013, 113(18), 2110-2142.       |
  +--------------------------------------------------------------------+
  
  start of program pre
  
[running at reduced cpu priority]
  Job name: jag_amide1_spe_B3LYP_6-31Gss
  Executables used: /opt/schrodinger/suites2018-2/jaguar-v10.0/bin/Darwin-x86_64
  Temporary files : /Users/haoyuyu/.schrodinger/tmp/jag_amide1_spe_B3LYP_6-31Gss#Haoyus-MacBook-Pro-3-0-5da09eab
  Maestro file (input):  jag_amide1_spe_B3LYP_6-31Gss.mae
  Maestro file (output): jag_amide1_spe_B3LYP_6-31Gss.01.mae
  
  basis set:             6-31g**                         
  net molecular charge:    0
  multiplicity:            1
  
  Using up to   2 threads per process
  
  number of basis functions....          110
  
 Input geometry:
                                   angstroms
  atom               x                 y                 z
  C1            0.0000000000      0.0000000000      0.0000000000 
  N2           -0.4958095898     -1.2377324992      0.0000000000 
  O3           -0.7087927037      1.0021760715      0.0000000000 
  C4           -1.9144521625     -1.5827734403      0.0000000000 
  C5            1.5000000000      0.0000000000      0.0000000000 
  H6            0.0493880389     -2.0879439703      0.0000000000 
  H7           -2.0246266290     -2.6671910660      0.0000000000 
  H8           -2.3889267115     -1.1693641568      0.8899812732 
  H9           -2.3889267115     -1.1693641568     -0.8899812732 
  H10           1.8633333333     -1.0276618553      0.0000000000 
  H11           1.8633333333      0.5138309277     -0.8899812732 
  H12           1.8633333333      0.5138309277      0.8899812732 
   
  principal moments of inertia:
        amu*angstrom^2:       52.08146      127.91612      173.61147
                g*cm^2: 8.64832940E-39 2.12409694E-38 2.88288593E-38
   
  rotational constants:
               cm^(-1):      0.32367810      0.13178659      0.09709974
                   GHz:      9.70362531      3.95086243      2.91097706
   
  Molecular weight:      73.05 amu
   
  Stoichiometry: C3NH7O
  Molecular Point Group: Cs      
	Molecule translated to center of mass 
	Molecule reoriented along symmetry axes
  Point Group used: Cs
  
  
 Symmetrized geometry:
                                   angstroms
  atom               x                 y                 z
  C1           -0.3756872701      0.3343549931      0.0000000000 
  N2            0.8620452291     -0.1614545967      0.0000000000 
  O3           -1.3778633416     -0.3744377105      0.0000000000 
  C4            1.2070861702     -1.5800971694      0.0000000000 
  C5           -0.3756872701      1.8343549931      0.0000000000 
  H6            1.7122567002      0.3837430320      0.0000000000 
  H7            2.2915037959     -1.6902716359      0.0000000000 
  H8            0.7936768867     -2.0545717184      0.8899812732 
  H9            0.7936768867     -2.0545717184     -0.8899812732 
  H10           0.6519745852      2.1976883264      0.0000000000 
  H11          -0.8895181978      2.1976883264     -0.8899812732 
  H12          -0.8895181978      2.1976883264      0.8899812732 
   
  nuclear repulsion energy.......     180.714315864 hartrees
 
 Non-default options chosen:
   SCF calculation type: DFT(b3lyp)                  
   DFT=Becke_3_Parameter/HF+Slater+Becke88+VWN+LYP (B3LYP)
   Electrostatic potential fit to point charges on atomic centers
  
 Temporary integer options set:
     73=  2
  
  end of program pre
   
 Time(pre)  user:        0.8  user+sys:        0.8  wallclock:        0.5
  
  start of program onee
  
  smallest eigenvalue of S:    3.128E-03
  number of canonical orbitals.....          110
  end of program onee
   
 Time(onee)  user:        0.3  user+sys:        0.3  wallclock:        0.2
  
  start of program hfig
  
  initial wavefunction generated automatically from atomic wavefunctions
 
  Irreducible     Total no   No of occupied orbitals 
  representation  orbitals   Shell_1  Shell_2    ...
  Ap                77         16
  App               33          4
  ------------------------
  Orbital occupation/shell    1.000
 
  end of program hfig
   
 Time(hfig)  user:        0.3  user+sys:        0.3  wallclock:        0.2
  
  start of program probe
  
  end of program probe
   
 Time(probe)  user:        0.3  user+sys:        0.3  wallclock:        0.2
  
  start of program grid
  
   grid     grid set  grid #  grid sym
  ------    --------  ------  --------
  coarse        0        0        1
  medium        2        1        2
  fine          0        0        1
  ultrafine     4        2        2
  charge       -1        3        2
  gradient      4        2        2
  density       0        0        1
  DFT-fine    -11        4        2
  DFT-med.    -10        5        2
  DFT-grad    -12        6        2
  DFT-der2      0        0        1
  DFT-cphf      0        0        1
  LMP2-enrg     4        2        2
  LMP2-grad     2        1        2
  DFT-cphf2     0        0        1
  PBF-dens      0        0        1
  plotting      0        0        1
  Rel-grad    -17        0        1
  
  number of gridpoints: 
     atom        C1       N2       O3       C4       C5       H6       H7
  grid # 1       55       56       73       47       47       64       65
  grid # 2      195      196      296      158      158      254      261
  grid # 3       58       60      688        5        5      475      617
  grid # 4     2430     2430     2430     2430     2430     2430     2430
  grid # 5      756      756      756      756      756      756      756
  grid # 6     3001     3001     3001     3001     3001     3001     3001
   
  number of gridpoints: 
     atom        H8       H9      H10      H11      H12    total
  grid # 1      112        0       63        0      113      695
  grid # 2      445        0      255        0      449     2667
  grid # 3     1156        0      493        0     1245     4802
  grid # 4     4304        0     2430        0     4304    28048
  grid # 5     1192        0      756        0     1192     8432
  grid # 6     5226        0     3001        0     5226    34460
   
  end of program grid
   
 Time(grid)  user:        0.5  user+sys:        0.5  wallclock:        0.3
  
  start of program rwr
  
  end of program rwr
   
 Time(rwr)  user:        0.8  user+sys:        0.8  wallclock:        0.5
  
  start of program scf
  
 number of electrons..........         40
 number of alpha electrons....         20
 number of beta electrons.....         20
 number of orbitals, total....        110
 number of doubly-occ'd orbs..         20
 number of open shell orbs....          0
 number of occupied orbitals..         20
 number of virtual orbitals...         90
 number of hamiltonians.......          1
 number of shells.............          1
 SCF type: DFT=Becke_3_Parameter/HF+Slater+Becke88+VWN+LYP (B3LYP)
 Energy computed with NOPS off.
  
       i  u  d  i  g                   
       t  p  i  c  r                                 RMS    maximum
       e  d  i  u  i                       energy  density   DIIS  
       r  t  s  t  d       total energy    change  change    error 
  
etot    1  N  N  5  M    -247.58446625434           1.2E-02  1.8E-01
etot    2  Y  Y  6  M    -248.09509341458  5.1E-01  9.6E-03  1.5E-01
etot    3  Y  Y  6  M    -248.35959525220  2.6E-01  4.6E-03  8.3E-02
etot    4  N  Y  2  U    -248.51162621465  1.5E-01  1.7E-03  1.8E-02
etot    5  Y  Y  6  M    -248.52747837837  1.6E-02  5.5E-04  5.1E-03
etot    6  N  Y  2  U    -248.52816284986  6.8E-04  1.9E-04  3.4E-03
etot    7  Y  Y  6  M    -248.52836202473  2.0E-04  5.0E-05  8.8E-04
etot    8  Y  N  6  M    -248.52839084812  2.9E-05  0.0E+00  0.0E+00
  
  
 Energy components, in hartrees:
   (A)  Nuclear repulsion............     180.71431586351
   (E)  Total one-electron terms.....    -694.55799027633
   (I)  Total two-electron terms.....     265.31528356470
   (J)    Coulomb....................     299.76364105347
   (K)    Exchange+Correlation.......     -34.44835748877
   (L)  Electronic energy............    -429.24270671163  (E+I)
   (N)  Total energy.................    -248.52839084812  (A+L)
   (O)  Gas phase energy.............    -248.52839084812
  
 SCFE: SCF energy: DFT(b3lyp)      -248.52839084812 hartrees   iterations:   8
  
 
 HOMO energy:    -0.23796
 LUMO energy:     0.04095
 
  Orbital energies (hartrees)/symmetry label: 
   -19.09594 Ap        -14.35827 Ap        -10.27613 Ap        -10.21740 Ap     
   -10.18524 Ap         -1.01981 Ap         -0.91908 Ap         -0.75556 Ap     
    -0.68553 Ap         -0.59086 Ap         -0.49870 Ap         -0.45949 App    
    -0.45777 Ap         -0.42371 App        -0.40495 Ap         -0.39002 Ap     
    -0.38057 Ap         -0.34570 App        -0.24833 App        -0.23796 Ap     
     0.04095 App         0.06264 Ap          0.11922 Ap          0.13156 Ap     
     0.16311 Ap          0.16730 Ap          0.17482 App         0.18898 App    
     0.20762 Ap          0.24859 Ap     
 
  end of program scf
   
 Time(scf)  user:        2.7  user+sys:        2.7  wallclock:        1.7
  
  start of program ch
  
  gridpoints used for charge fit         4581
    out of a possible maximum of         4802
  
   Electrostatic potential fitting constrained to reproduce
     total charge:                yes
     dipole moment:               no 
     traceless quadrupole moment: no 
     traceless octapole moment:   no 
  
  Atomic charges from electrostatic potential: 
   
 Atom       C1           N2           O3           C4           C5      
 Charge    0.67880     -0.38732     -0.53021     -0.29001     -0.68364
   
 Atom       H6           H7           H8           H9           H10     
 Charge    0.29754      0.12557      0.12664      0.12664      0.14262
   
 Atom       H11          H12     
 Charge    0.19668      0.19668
  
  sum of atomic charges:     0.000000
   
 RMS Error   6.88E-04 hartrees
 
  end of program ch
   
 Time(ch)  user:        0.8  user+sys:        0.8  wallclock:        0.6

 Total cpu seconds     user:       4.947   user+sys:       4.947
  
 Total elapsed time:    6 seconds

Job jag_amide1_spe_B3LYP_6-31Gss completed on Haoyus-MacBook-Pro-3.local at Fri Oct 11 11:24:35 2019
