Job jag_urea_spe_B3LYP_6-31Gss_2 started on Haoyus-MacBook-Pro-3.local at Fri Oct 11 11:24:12 2019
jobid: Haoyus-MacBook-Pro-3-0-5da09e9a

  +--------------------------------------------------------------------+
  |  Jaguar version 10.0, release  11                                   |
  |                                                                    |
  |  Copyright Schrodinger, Inc.                                       |
  |  All Rights Reserved.                                              |
  |                                                                    |
  |  The following have contributed to Jaguar (listed alphabetically): |
  |  Mike Beachy, Art Bochevarov, Dale Braden, Yixiang Cao,            |
  |  Chris Cortis, Rich Friesner, Bill Goddard, Hod Greeley,           |
  |  Tom Hughes, Leif Jacobson, Jean-Marc Langlois,                    |
  |  Daniel Mainz, Rob Murphy, Dean Philipp, Tom Pollard,              |
  |  Murco Ringnalda, Mark Watson, Haoyu Yu.                           |
  |                                                                    |
  |  Use of this program should be acknowledged in publications as:    |
  |                                                                    |
  |  Jaguar, version 10.0, Schrodinger, Inc., New York, NY, 2018.       |
  |                                                                    |
  |  A. D. Bochevarov, E. Harder, T. F. Hughes, J. R. Greenwood,       |
  |  D. A. Braden, D. M. Philipp, D. Rinaldo, M. D. Halls,             |
  |  J. Zhang, R. A. Friesner, "Jaguar: A High-Performance Quantum     |
  |  Chemistry Software Program with Strengths in Life and Materials   |
  |  Sciences", Int. J. Quantum Chem., 2013, 113(18), 2110-2142.       |
  +--------------------------------------------------------------------+
  
  start of program pre
  
[running at reduced cpu priority]
  Job name: jag_urea_spe_B3LYP_6-31Gss_2
  Executables used: /opt/schrodinger/suites2018-2/jaguar-v10.0/bin/Darwin-x86_64
  Temporary files : /Users/haoyuyu/.schrodinger/tmp/jag_urea_spe_B3LYP_6-31Gss_2#Haoyus-MacBook-Pro-3-0-5da09e9a
  Maestro file (input):  jag_urea_spe_B3LYP_6-31Gss_2.mae
  Maestro file (output): jag_urea_spe_B3LYP_6-31Gss_2.01.mae
  
  basis set:             6-31g**                         
  net molecular charge:    0
  multiplicity:            1
  
  Using up to   2 threads per process
  
  number of basis functions....           80
  
 Input geometry:
                                   angstroms
  atom               x                 y                 z
  C1            0.0000000000      0.0000000000     -0.0869990000 
  N2            0.0000000000      1.1076760000      0.6472630000 
  N3            0.0000000000     -1.1076760000      0.6472630000 
  O4            0.0000000000      0.0000000000     -1.3126550000 
  H5            0.0000000000      2.0496180000      0.2864370000 
  H6            0.0000000000      1.1421520000      1.6545990000 
  H7            0.0000000000     -2.0496180000      0.2864370000 
  H8            0.0000000000     -1.1421520000      1.6545990000 
   
  principal moments of inertia:
        amu*angstrom^2:       45.06785       45.45909       90.52694
                g*cm^2: 7.48369158E-39 7.54865780E-39 1.50323494E-38
   
  rotational constants:
               cm^(-1):      0.37405000      0.37083080      0.18621672
                   GHz:     11.21373685     11.11722776      5.58263688
   
  Molecular weight:      60.03 amu
   
  Stoichiometry: CN2H4O
  Molecular Point Group: C2v     
	Molecule translated to center of mass 
	Molecule reoriented along symmetry axes
  Point Group used: C2v
  
  
 Symmetrized geometry:
                                   angstroms
  atom               x                 y                 z
  C1            0.0000000000      0.0000000000     -0.0869990011 
  N2            0.0000000000      1.1076760000      0.6472629989 
  N3            0.0000000000     -1.1076760000      0.6472629989 
  O4            0.0000000000      0.0000000000     -1.3126550011 
  H5            0.0000000000      2.0496180000      0.2864369989 
  H6            0.0000000000      1.1421520000      1.6545989989 
  H7            0.0000000000     -2.0496180000      0.2864369989 
  H8            0.0000000000     -1.1421520000      1.6545989989 
   
  nuclear repulsion energy.......     125.561941156 hartrees
 
 Non-default options chosen:
   HF Initial guess: read from Jaguar .in file
   SCF calculation type: DFT(b3lyp)                  
   DFT=Becke_3_Parameter/HF+Slater+Becke88+VWN+LYP (B3LYP)
   Electrostatic potential fit to point charges on atomic centers
  
 Temporary integer options set:
     73=  2
  
  end of program pre
   
 Time(pre)  user:        0.8  user+sys:        0.8  wallclock:        0.5
  
  start of program onee
  
  smallest eigenvalue of S:    2.916E-03
  number of canonical orbitals.....           80
  end of program onee
   
 Time(onee)  user:        0.3  user+sys:        0.3  wallclock:        0.2
  
  start of program hfig
  
  initial wavefunction read from .in file
  reading wavefunction from input file
          26  orbitals read from .in file
  virtual orbitals input are ignored
  Largest Normalization error   1.979659350630388E-007
  RMS Normalization error   4.953832438728516E-008
 
  Irreducible     Total no   No of occupied orbitals 
  representation  orbitals   Shell_1  Shell_2    ...
  A1                35          8
  A2                 8          1
  B1                12          2
  B2                25          5
  ------------------------
  Orbital occupation/shell    1.000
 
  end of program hfig
   
 Time(hfig)  user:        0.3  user+sys:        0.3  wallclock:        0.2
  
  start of program probe
  
  end of program probe
   
 Time(probe)  user:        0.2  user+sys:        0.2  wallclock:        0.2
  
  start of program grid
  
   grid     grid set  grid #  grid sym
  ------    --------  ------  --------
  coarse        0        0        1
  medium        2        1        4
  fine          0        0        1
  ultrafine     4        2        4
  charge       -1        3        4
  gradient      4        2        4
  density       0        0        1
  DFT-fine    -11        4        4
  DFT-med.    -10        5        4
  DFT-grad    -12        6        4
  DFT-der2      0        0        1
  DFT-cphf      0        0        1
  LMP2-enrg     4        2        4
  LMP2-grad     2        1        4
  DFT-cphf2     0        0        1
  PBF-dens      0        0        1
  plotting      0        0        1
  Rel-grad    -17        0        1
  
  number of gridpoints: 
     atom        C1       N2       N3       O4       H5       H6       H7
  grid # 1       34       57        0       44       68       65        0
  grid # 2      119      180        0      171      264      257        0
  grid # 3       75       91        0      443      747      622        0
  grid # 4     1395     2430        0     1395     2430     2430        0
  grid # 5      480      756        0      480      756      756        0
  grid # 6     1733     3001        0     1733     3001     3001        0
   
  number of gridpoints: 
     atom        H8    total
  grid # 1        0      268
  grid # 2        0      991
  grid # 3        0     1978
  grid # 4        0    10080
  grid # 5        0     3228
  grid # 6        0    12469
   
  end of program grid
   
 Time(grid)  user:        0.3  user+sys:        0.3  wallclock:        0.2
  
  start of program rwr
  
  end of program rwr
   
 Time(rwr)  user:        0.5  user+sys:        0.5  wallclock:        0.3
  
  start of program scf
  
 number of electrons..........         32
 number of alpha electrons....         16
 number of beta electrons.....         16
 number of orbitals, total....         80
 number of doubly-occ'd orbs..         16
 number of open shell orbs....          0
 number of occupied orbitals..         16
 number of virtual orbitals...         64
 number of hamiltonians.......          1
 number of shells.............          1
 SCF type: DFT=Becke_3_Parameter/HF+Slater+Becke88+VWN+LYP (B3LYP)
 Energy computed with NOPS off.
  
       i  u  d  i  g                   
       t  p  i  c  r                                 RMS    maximum
       e  d  i  u  i                       energy  density   DIIS  
       r  t  s  t  d       total energy    change  change    error 
  
etot    1  N  N  2  U    -225.26111492039           1.8E-05  1.6E-04
etot    2  N  N  2  U    -225.26111473386 -1.9E-07  0.0E+00  0.0E+00
  
  
 Energy components, in hartrees:
   (A)  Nuclear repulsion............     125.56194115571
   (E)  Total one-electron terms.....    -555.30421280680
   (I)  Total two-electron terms.....     204.48115691723
   (J)    Coulomb....................     233.92050002638
   (K)    Exchange+Correlation.......     -29.43934310915
   (L)  Electronic energy............    -350.82305588957  (E+I)
   (N)  Total energy.................    -225.26111473386  (A+L)
   (O)  Gas phase energy.............    -225.26111473386
  
 SCFE: SCF energy: DFT(b3lyp)      -225.26111473386 hartrees   iterations:   2
  
 
 HOMO energy:    -0.23806
 LUMO energy:     0.05926
 
  Orbital energies (hartrees)/symmetry label: 
   -19.07683 A1        -14.34412 B2        -14.34411 A1        -10.29764 A1     
    -1.02744 A1         -0.91628 A1         -0.87590 B2         -0.63480 A1     
    -0.55593 B2         -0.52698 A1         -0.46534 B2         -0.42025 B1     
    -0.38631 A1         -0.26330 A2         -0.24664 B1         -0.23806 B2     
     0.05926 A1          0.09461 B1          0.11037 A1          0.11136 B2     
     0.15969 B2          0.29368 A1          0.34017 A1          0.45989 B2     
     0.55962 A1          0.56615 B2     
 
  end of program scf
   
 Time(scf)  user:        1.2  user+sys:        1.2  wallclock:        0.8
  
  start of program ch
  
  gridpoints used for charge fit         1916
    out of a possible maximum of         1978
  
   Electrostatic potential fitting constrained to reproduce
     total charge:                yes
     dipole moment:               no 
     traceless quadrupole moment: no 
     traceless octapole moment:   no 
  
  Atomic charges from electrostatic potential: 
   
 Atom       C1           N2           N3           O4           H5      
 Charge    0.96942     -0.96424     -0.96424     -0.60907      0.39591
   
 Atom       H6           H7           H8      
 Charge    0.38816      0.39591      0.38816
  
  sum of atomic charges:    -0.000000
   
 RMS Error   6.31E-04 hartrees
 
  end of program ch
   
 Time(ch)  user:        0.7  user+sys:        0.7  wallclock:        0.5

 Total cpu seconds     user:       2.914   user+sys:       2.914
  
 Total elapsed time:    5 seconds

Job jag_urea_spe_B3LYP_6-31Gss_2 completed on Haoyus-MacBook-Pro-3.local at Fri Oct 11 11:24:17 2019
